|===============================================================================
|
|  DFTB+ release 20.2.1
|
|  Copyright (C) 2006 - 2020  DFTB+ developers group
|
|===============================================================================
|
|  When publishing results obtained with DFTB+, please cite the following
|  reference:
|
|  * DFTB+, a software package for efficient approximate density functional
|    theory based atomistic simulations, J. Chem. Phys. 152, 124101 (2020).
|    [doi: 10.1063/1.5143190]
|
|  You should also cite additional publications crediting the parametrization
|  data you use. Please consult the documentation of the SK-files for the
|  references.
|
|===============================================================================

Reading input file 'dftb_in.hsd'
Parser version: 9

--------------------------------------------------------------------------------
***  Converting input from parser version  8 to parser version  9 ...
***  Done.

Reading SK-files:
Done.


Processed input in HSD format written to 'dftb_pin.hsd'

Starting initialization...
--------------------------------------------------------------------------------
OpenMP threads:              1
Chosen random seed:          1521662808
Mode:                        Static calculation
Self consistent charges:     Yes
SCC-tolerance:                 0.100000E-04
Max. scc iterations:                 850000
Shell resolved Hubbard:      No
Spin polarisation:           No
Nr. of up electrons:           121.000000
Nr. of down electrons:         121.000000
Periodic boundaries:         No
Electronic solver:           Relatively robust
Mixer:                       Anderson mixer
Mixing parameter:                  0.050000
Maximal SCC-cycles:                  850000
Nr. of chrg. vectors to mix:              4
Electronic temperature:        0.126673E-02 H      0.344694E-01 eV
Initial charges:             Set automatically (system chrg:   0.000E+00)
Included shells:             C:  s, p
                             H:  s
Extra options:
                             Mulliken analysis
                             Force calculation
Force type                   original

--------------------------------------------------------------------------------

***  Geometry step: 0

 iSCC Total electronic   Diff electronic      SCC error    
    1    0.00000000E+00    0.00000000E+00    0.80652924E-01
    2   -0.10436737E+03   -0.10436737E+03    0.79483021E-01
    3   -0.10436747E+03   -0.99585078E-04    0.31434667E-01
    4   -0.10436766E+03   -0.19114953E-03    0.30418124E-01
    5   -0.10436770E+03   -0.40260258E-04    0.10015444E-01
    6   -0.10436893E+03   -0.12226989E-02    0.84290845E-02
    7   -0.10436894E+03   -0.13978550E-04    0.25294560E-02
    8   -0.10436900E+03   -0.65178822E-04    0.22182549E-02
    9   -0.10436901E+03   -0.13218541E-05    0.72238771E-03
   10   -0.10436901E+03   -0.41155783E-05    0.59240595E-03
   11   -0.10436901E+03   -0.86457248E-07    0.26154850E-03
   12   -0.10436901E+03   -0.34652686E-06    0.23336585E-03
   13   -0.10436901E+03   -0.52722271E-08    0.72141973E-04
   14   -0.10436901E+03   -0.21611910E-07    0.58823465E-04
   15   -0.10436901E+03   -0.82810914E-09    0.21886927E-04
   16   -0.10436901E+03   -0.28259137E-08    0.16671412E-04
   17   -0.10436901E+03   -0.15660362E-09    0.60534479E-05
>> Charges saved for restart in charges.bin

Total Energy:                     -102.7660256548 H        -2796.4058 eV
Extrapolated to 0K:               -102.7660256549 H        -2796.4058 eV
Total Mermin free energy:         -102.7660256549 H        -2796.4058 eV
Force related energy:             -102.7660256549 H        -2796.4058 eV


--------------------------------------------------------------------------------
DFTB+ running times                          cpu [s]             wall clock [s]
--------------------------------------------------------------------------------
SCC                                    +     0.25  ( 88.1%)      0.29  ( 89.4%)
Post-SCC processing                    +     0.03  ( 10.0%)      0.03  (  9.0%)
--------------------------------------------------------------------------------
Missing                                +     0.01  (  1.9%)      0.01  (  1.6%)
Total                                  =     0.29  (100.0%)      0.32  (100.0%)
--------------------------------------------------------------------------------
