|===============================================================================
|
|  DFTB+ release 20.2.1
|
|  Copyright (C) 2006 - 2020  DFTB+ developers group
|
|===============================================================================
|
|  When publishing results obtained with DFTB+, please cite the following
|  reference:
|
|  * DFTB+, a software package for efficient approximate density functional
|    theory based atomistic simulations, J. Chem. Phys. 152, 124101 (2020).
|    [doi: 10.1063/1.5143190]
|
|  You should also cite additional publications crediting the parametrization
|  data you use. Please consult the documentation of the SK-files for the
|  references.
|
|===============================================================================

Reading input file 'dftb_in.hsd'
Parser version: 9

--------------------------------------------------------------------------------
***  Converting input from parser version  8 to parser version  9 ...
***  Done.

Reading SK-files:
Done.


Processed input in HSD format written to 'dftb_pin.hsd'

Starting initialization...
--------------------------------------------------------------------------------
OpenMP threads:              1
Chosen random seed:          1521663142
Mode:                        Static calculation
Self consistent charges:     Yes
SCC-tolerance:                 0.100000E-04
Max. scc iterations:                 850000
Shell resolved Hubbard:      No
Spin polarisation:           No
Nr. of up electrons:           121.000000
Nr. of down electrons:         121.000000
Periodic boundaries:         No
Electronic solver:           Relatively robust
Mixer:                       Anderson mixer
Mixing parameter:                  0.050000
Maximal SCC-cycles:                  850000
Nr. of chrg. vectors to mix:              4
Electronic temperature:        0.126673E-02 H      0.344694E-01 eV
Initial charges:             Set automatically (system chrg:   0.000E+00)
Included shells:             C:  s, p
                             H:  s
Extra options:
                             Mulliken analysis
                             Force calculation
Force type                   original

--------------------------------------------------------------------------------

***  Geometry step: 0

 iSCC Total electronic   Diff electronic      SCC error    
    1    0.00000000E+00    0.00000000E+00    0.77712853E-01
    2   -0.10437054E+03   -0.10437054E+03    0.76658815E-01
    3   -0.10437061E+03   -0.72749886E-04    0.27700962E-01
    4   -0.10437125E+03   -0.64312639E-03    0.27628828E-01
    5   -0.10437127E+03   -0.12190273E-04    0.80144705E-02
    6   -0.10437190E+03   -0.62833814E-03    0.68139480E-02
    7   -0.10437190E+03   -0.76691950E-05    0.24383406E-02
    8   -0.10437194E+03   -0.33741425E-04    0.21774755E-02
    9   -0.10437194E+03   -0.34973641E-06    0.67184765E-03
   10   -0.10437194E+03   -0.15370275E-05    0.61289532E-03
   11   -0.10437194E+03   -0.74809009E-07    0.20238756E-03
   12   -0.10437194E+03   -0.26901250E-06    0.18752314E-03
   13   -0.10437194E+03   -0.29524045E-08    0.46020180E-04
   14   -0.10437194E+03   -0.22241764E-07    0.39100024E-04
   15   -0.10437194E+03   -0.15774049E-10    0.15623202E-04
   16   -0.10437194E+03   -0.13737065E-08    0.12439184E-04
   17   -0.10437194E+03   -0.11488055E-09    0.68383798E-05
>> Charges saved for restart in charges.bin

Total Energy:                     -102.7111742746 H        -2794.9133 eV
Extrapolated to 0K:               -102.7111742746 H        -2794.9133 eV
Total Mermin free energy:         -102.7111742747 H        -2794.9133 eV
Force related energy:             -102.7111742747 H        -2794.9133 eV


--------------------------------------------------------------------------------
DFTB+ running times                          cpu [s]             wall clock [s]
--------------------------------------------------------------------------------
SCC                                    +     0.28  ( 88.4%)      0.59  ( 94.3%)
Post-SCC processing                    +     0.03  (  9.8%)      0.03  (  4.8%)
--------------------------------------------------------------------------------
Missing                                +     0.01  (  1.7%)      0.01  (  1.0%)
Total                                  =     0.31  (100.0%)      0.63  (100.0%)
--------------------------------------------------------------------------------
