|===============================================================================
|
|  DFTB+ release 20.2.1
|
|  Copyright (C) 2006 - 2020  DFTB+ developers group
|
|===============================================================================
|
|  When publishing results obtained with DFTB+, please cite the following
|  reference:
|
|  * DFTB+, a software package for efficient approximate density functional
|    theory based atomistic simulations, J. Chem. Phys. 152, 124101 (2020).
|    [doi: 10.1063/1.5143190]
|
|  You should also cite additional publications crediting the parametrization
|  data you use. Please consult the documentation of the SK-files for the
|  references.
|
|===============================================================================

Reading input file 'dftb_in.hsd'
Parser version: 9

--------------------------------------------------------------------------------
***  Converting input from parser version  8 to parser version  9 ...
***  Done.

Reading SK-files:
Done.


Processed input in HSD format written to 'dftb_pin.hsd'

Starting initialization...
--------------------------------------------------------------------------------
OpenMP threads:              1
Chosen random seed:          1521662861
Mode:                        Static calculation
Self consistent charges:     Yes
SCC-tolerance:                 0.100000E-04
Max. scc iterations:                 850000
Shell resolved Hubbard:      No
Spin polarisation:           No
Nr. of up electrons:           121.000000
Nr. of down electrons:         121.000000
Periodic boundaries:         No
Electronic solver:           Relatively robust
Mixer:                       Anderson mixer
Mixing parameter:                  0.050000
Maximal SCC-cycles:                  850000
Nr. of chrg. vectors to mix:              4
Electronic temperature:        0.126673E-02 H      0.344694E-01 eV
Initial charges:             Set automatically (system chrg:   0.000E+00)
Included shells:             C:  s, p
                             H:  s
Extra options:
                             Mulliken analysis
                             Force calculation
Force type                   original

--------------------------------------------------------------------------------

***  Geometry step: 0

 iSCC Total electronic   Diff electronic      SCC error    
    1    0.00000000E+00    0.00000000E+00    0.12568384E+00
    2   -0.10438296E+03   -0.10438296E+03    0.12351833E+00
    3   -0.10438309E+03   -0.12484563E-03    0.35457320E-01
    4   -0.10438414E+03   -0.10460601E-02    0.34273880E-01
    5   -0.10438416E+03   -0.23358209E-04    0.10866234E-01
    6   -0.10438519E+03   -0.10301537E-02    0.93251105E-02
    7   -0.10438521E+03   -0.17258003E-04    0.31741726E-02
    8   -0.10438527E+03   -0.62141103E-04    0.26750166E-02
    9   -0.10438527E+03   -0.14958936E-05    0.90774941E-03
   10   -0.10438528E+03   -0.50079749E-05    0.79968479E-03
   11   -0.10438528E+03   -0.87919091E-07    0.32346359E-03
   12   -0.10438528E+03   -0.50804046E-06    0.26757682E-03
   13   -0.10438528E+03   -0.32518415E-08    0.93595294E-04
   14   -0.10438528E+03   -0.42991331E-07    0.85536321E-04
   15   -0.10438528E+03   -0.11084182E-08    0.21755810E-04
   16   -0.10438528E+03   -0.27563090E-08    0.18004079E-04
   17   -0.10438528E+03   -0.34769698E-09    0.94105548E-05
>> Charges saved for restart in charges.bin

Total Energy:                     -102.7237905806 H        -2795.2566 eV
Extrapolated to 0K:               -102.7237905807 H        -2795.2566 eV
Total Mermin free energy:         -102.7237905807 H        -2795.2566 eV
Force related energy:             -102.7237905807 H        -2795.2566 eV


--------------------------------------------------------------------------------
DFTB+ running times                          cpu [s]             wall clock [s]
--------------------------------------------------------------------------------
SCC                                    +     0.26  ( 88.1%)      0.28  ( 88.7%)
Post-SCC processing                    +     0.03  ( 10.1%)      0.03  (  9.1%)
--------------------------------------------------------------------------------
Missing                                +     0.01  (  1.9%)      0.01  (  2.2%)
Total                                  =     0.29  (100.0%)      0.32  (100.0%)
--------------------------------------------------------------------------------
