|===============================================================================
|
|  DFTB+ release 20.2.1
|
|  Copyright (C) 2006 - 2020  DFTB+ developers group
|
|===============================================================================
|
|  When publishing results obtained with DFTB+, please cite the following
|  reference:
|
|  * DFTB+, a software package for efficient approximate density functional
|    theory based atomistic simulations, J. Chem. Phys. 152, 124101 (2020).
|    [doi: 10.1063/1.5143190]
|
|  You should also cite additional publications crediting the parametrization
|  data you use. Please consult the documentation of the SK-files for the
|  references.
|
|===============================================================================

Reading input file 'dftb_in.hsd'
Parser version: 9

--------------------------------------------------------------------------------
***  Converting input from parser version  8 to parser version  9 ...
***  Done.

Reading SK-files:
Done.


Processed input in HSD format written to 'dftb_pin.hsd'

Starting initialization...
--------------------------------------------------------------------------------
OpenMP threads:              1
Chosen random seed:          1521663160
Mode:                        Static calculation
Self consistent charges:     Yes
SCC-tolerance:                 0.100000E-04
Max. scc iterations:                 850000
Shell resolved Hubbard:      No
Spin polarisation:           No
Nr. of up electrons:           121.000000
Nr. of down electrons:         121.000000
Periodic boundaries:         No
Electronic solver:           Relatively robust
Mixer:                       Anderson mixer
Mixing parameter:                  0.050000
Maximal SCC-cycles:                  850000
Nr. of chrg. vectors to mix:              4
Electronic temperature:        0.126673E-02 H      0.344694E-01 eV
Initial charges:             Set automatically (system chrg:   0.000E+00)
Included shells:             C:  s, p
                             H:  s
Extra options:
                             Mulliken analysis
                             Force calculation
Force type                   original

--------------------------------------------------------------------------------

***  Geometry step: 0

 iSCC Total electronic   Diff electronic      SCC error    
    1    0.00000000E+00    0.00000000E+00    0.92795833E-01
    2   -0.10434012E+03   -0.10434012E+03    0.91208714E-01
    3   -0.10434022E+03   -0.94778030E-04    0.28420927E-01
    4   -0.10434078E+03   -0.56597173E-03    0.27872059E-01
    5   -0.10434080E+03   -0.17055006E-04    0.59580872E-02
    6   -0.10434170E+03   -0.89979789E-03    0.51035191E-02
    7   -0.10434170E+03   -0.43880710E-05    0.34078091E-02
    8   -0.10434172E+03   -0.14287209E-04    0.29444728E-02
    9   -0.10434172E+03   -0.79668571E-06    0.64720424E-03
   10   -0.10434172E+03   -0.37396196E-05    0.53667812E-03
   11   -0.10434172E+03   -0.48269897E-07    0.27305238E-03
   12   -0.10434172E+03   -0.39576436E-06    0.22584641E-03
   13   -0.10434172E+03   -0.53485820E-08    0.54758460E-04
   14   -0.10434172E+03   -0.22487626E-07    0.52638046E-04
   15   -0.10434172E+03   -0.51994675E-09    0.25321351E-04
   16   -0.10434172E+03   -0.19011850E-08    0.20029682E-04
   17   -0.10434172E+03   -0.98921760E-10    0.90241202E-05
>> Charges saved for restart in charges.bin

Total Energy:                     -102.7113364960 H        -2794.9177 eV
Extrapolated to 0K:               -102.7113364961 H        -2794.9177 eV
Total Mermin free energy:         -102.7113364961 H        -2794.9177 eV
Force related energy:             -102.7113364961 H        -2794.9177 eV


--------------------------------------------------------------------------------
DFTB+ running times                          cpu [s]             wall clock [s]
--------------------------------------------------------------------------------
SCC                                    +     0.29  ( 89.6%)      0.58  ( 94.7%)
Post-SCC processing                    +     0.03  (  8.7%)      0.03  (  4.5%)
--------------------------------------------------------------------------------
Missing                                +     0.01  (  1.7%)      0.00  (  0.8%)
Total                                  =     0.32  (100.0%)      0.62  (100.0%)
--------------------------------------------------------------------------------
