|===============================================================================
|
|  DFTB+ release 20.2.1
|
|  Copyright (C) 2006 - 2020  DFTB+ developers group
|
|===============================================================================
|
|  When publishing results obtained with DFTB+, please cite the following
|  reference:
|
|  * DFTB+, a software package for efficient approximate density functional
|    theory based atomistic simulations, J. Chem. Phys. 152, 124101 (2020).
|    [doi: 10.1063/1.5143190]
|
|  You should also cite additional publications crediting the parametrization
|  data you use. Please consult the documentation of the SK-files for the
|  references.
|
|===============================================================================

Reading input file 'dftb_in.hsd'
Parser version: 9

--------------------------------------------------------------------------------
***  Converting input from parser version  8 to parser version  9 ...
***  Done.

Reading SK-files:
Done.


Processed input in HSD format written to 'dftb_pin.hsd'

Starting initialization...
--------------------------------------------------------------------------------
OpenMP threads:              1
Chosen random seed:          1521663138
Mode:                        Static calculation
Self consistent charges:     Yes
SCC-tolerance:                 0.100000E-04
Max. scc iterations:                 850000
Shell resolved Hubbard:      No
Spin polarisation:           No
Nr. of up electrons:           121.000000
Nr. of down electrons:         121.000000
Periodic boundaries:         No
Electronic solver:           Relatively robust
Mixer:                       Anderson mixer
Mixing parameter:                  0.050000
Maximal SCC-cycles:                  850000
Nr. of chrg. vectors to mix:              4
Electronic temperature:        0.126673E-02 H      0.344694E-01 eV
Initial charges:             Set automatically (system chrg:   0.000E+00)
Included shells:             C:  s, p
                             H:  s
Extra options:
                             Mulliken analysis
                             Force calculation
Force type                   original

--------------------------------------------------------------------------------

***  Geometry step: 0

 iSCC Total electronic   Diff electronic      SCC error    
    1    0.00000000E+00    0.00000000E+00    0.11324373E+00
    2   -0.10432216E+03   -0.10432216E+03    0.11140071E+00
    3   -0.10432222E+03   -0.62282323E-04    0.20381682E-01
    4   -0.10432288E+03   -0.65262839E-03    0.20055277E-01
    5   -0.10432290E+03   -0.18445000E-04    0.89626486E-02
    6   -0.10432341E+03   -0.51863918E-03    0.78198176E-02
    7   -0.10432342E+03   -0.89572098E-05    0.21341060E-02
    8   -0.10432347E+03   -0.42722827E-04    0.19432140E-02
    9   -0.10432347E+03   -0.80879980E-06    0.78964891E-03
   10   -0.10432347E+03   -0.32364262E-05    0.64164290E-03
   11   -0.10432347E+03   -0.41438327E-07    0.28469170E-03
   12   -0.10432347E+03   -0.21826928E-06    0.25203953E-03
   13   -0.10432347E+03   -0.64410699E-08    0.72115362E-04
   14   -0.10432347E+03   -0.35500591E-07    0.59655485E-04
   15   -0.10432347E+03   -0.68217787E-09    0.19611313E-04
   16   -0.10432347E+03   -0.26776519E-08    0.13609023E-04
   17   -0.10432347E+03   -0.23916868E-09    0.48383424E-05
>> Charges saved for restart in charges.bin

Total Energy:                     -102.7488482532 H        -2795.9384 eV
Extrapolated to 0K:               -102.7488482535 H        -2795.9384 eV
Total Mermin free energy:         -102.7488482538 H        -2795.9384 eV
Force related energy:             -102.7488482538 H        -2795.9384 eV


--------------------------------------------------------------------------------
DFTB+ running times                          cpu [s]             wall clock [s]
--------------------------------------------------------------------------------
SCC                                    +     0.28  ( 89.2%)      0.59  ( 94.7%)
Post-SCC processing                    +     0.03  (  9.1%)      0.03  (  4.5%)
--------------------------------------------------------------------------------
Missing                                +     0.01  (  1.8%)      0.00  (  0.8%)
Total                                  =     0.31  (100.0%)      0.62  (100.0%)
--------------------------------------------------------------------------------
