|===============================================================================
|
|  DFTB+ release 20.2.1
|
|  Copyright (C) 2006 - 2020  DFTB+ developers group
|
|===============================================================================
|
|  When publishing results obtained with DFTB+, please cite the following
|  reference:
|
|  * DFTB+, a software package for efficient approximate density functional
|    theory based atomistic simulations, J. Chem. Phys. 152, 124101 (2020).
|    [doi: 10.1063/1.5143190]
|
|  You should also cite additional publications crediting the parametrization
|  data you use. Please consult the documentation of the SK-files for the
|  references.
|
|===============================================================================

Reading input file 'dftb_in.hsd'
Parser version: 9

--------------------------------------------------------------------------------
***  Converting input from parser version  8 to parser version  9 ...
***  Done.

Reading SK-files:
Done.


Processed input in HSD format written to 'dftb_pin.hsd'

Starting initialization...
--------------------------------------------------------------------------------
OpenMP threads:              1
Chosen random seed:          1521662817
Mode:                        Static calculation
Self consistent charges:     Yes
SCC-tolerance:                 0.100000E-04
Max. scc iterations:                 850000
Shell resolved Hubbard:      No
Spin polarisation:           No
Nr. of up electrons:           121.000000
Nr. of down electrons:         121.000000
Periodic boundaries:         No
Electronic solver:           Relatively robust
Mixer:                       Anderson mixer
Mixing parameter:                  0.050000
Maximal SCC-cycles:                  850000
Nr. of chrg. vectors to mix:              4
Electronic temperature:        0.126673E-02 H      0.344694E-01 eV
Initial charges:             Set automatically (system chrg:   0.000E+00)
Included shells:             C:  s, p
                             H:  s
Extra options:
                             Mulliken analysis
                             Force calculation
Force type                   original

--------------------------------------------------------------------------------

***  Geometry step: 0

 iSCC Total electronic   Diff electronic      SCC error    
    1    0.00000000E+00    0.00000000E+00    0.83640055E-01
    2   -0.10437849E+03   -0.10437849E+03    0.82449020E-01
    3   -0.10437857E+03   -0.86985447E-04    0.36859311E-01
    4   -0.10437944E+03   -0.86693671E-03    0.35941217E-01
    5   -0.10437945E+03   -0.80061647E-05    0.73171425E-02
    6   -0.10437998E+03   -0.53663573E-03    0.68649863E-02
    7   -0.10438000E+03   -0.11612301E-04    0.22249271E-02
    8   -0.10438003E+03   -0.38119713E-04    0.19836536E-02
    9   -0.10438003E+03   -0.68579325E-06    0.68060356E-03
   10   -0.10438004E+03   -0.28050138E-05    0.62808690E-03
   11   -0.10438004E+03   -0.84204643E-07    0.18642488E-03
   12   -0.10438004E+03   -0.35035751E-06    0.16889199E-03
   13   -0.10438004E+03   -0.22903066E-08    0.74859197E-04
   14   -0.10438004E+03   -0.24864548E-07    0.64672596E-04
   15   -0.10438004E+03   -0.47839421E-09    0.19907016E-04
   16   -0.10438004E+03   -0.10655441E-08    0.15542243E-04
   17   -0.10438004E+03   -0.20075674E-09    0.70822004E-05
>> Charges saved for restart in charges.bin

Total Energy:                     -102.7430780720 H        -2795.7814 eV
Extrapolated to 0K:               -102.7430780720 H        -2795.7814 eV
Total Mermin free energy:         -102.7430780720 H        -2795.7814 eV
Force related energy:             -102.7430780720 H        -2795.7814 eV


--------------------------------------------------------------------------------
DFTB+ running times                          cpu [s]             wall clock [s]
--------------------------------------------------------------------------------
SCC                                    +     0.26  ( 88.1%)      0.29  ( 89.6%)
Post-SCC processing                    +     0.03  (  9.9%)      0.03  (  8.8%)
--------------------------------------------------------------------------------
Missing                                +     0.01  (  1.9%)      0.01  (  1.5%)
Total                                  =     0.29  (100.0%)      0.33  (100.0%)
--------------------------------------------------------------------------------
