|===============================================================================
|
|  DFTB+ release 20.2.1
|
|  Copyright (C) 2006 - 2020  DFTB+ developers group
|
|===============================================================================
|
|  When publishing results obtained with DFTB+, please cite the following
|  reference:
|
|  * DFTB+, a software package for efficient approximate density functional
|    theory based atomistic simulations, J. Chem. Phys. 152, 124101 (2020).
|    [doi: 10.1063/1.5143190]
|
|  You should also cite additional publications crediting the parametrization
|  data you use. Please consult the documentation of the SK-files for the
|  references.
|
|===============================================================================

Reading input file 'dftb_in.hsd'
Parser version: 9

--------------------------------------------------------------------------------
***  Converting input from parser version  8 to parser version  9 ...
***  Done.

Reading SK-files:
Done.


Processed input in HSD format written to 'dftb_pin.hsd'

Starting initialization...
--------------------------------------------------------------------------------
OpenMP threads:              1
Chosen random seed:          1521662837
Mode:                        Static calculation
Self consistent charges:     Yes
SCC-tolerance:                 0.100000E-04
Max. scc iterations:                 850000
Shell resolved Hubbard:      No
Spin polarisation:           No
Nr. of up electrons:           121.000000
Nr. of down electrons:         121.000000
Periodic boundaries:         No
Electronic solver:           Relatively robust
Mixer:                       Anderson mixer
Mixing parameter:                  0.050000
Maximal SCC-cycles:                  850000
Nr. of chrg. vectors to mix:              4
Electronic temperature:        0.126673E-02 H      0.344694E-01 eV
Initial charges:             Set automatically (system chrg:   0.000E+00)
Included shells:             C:  s, p
                             H:  s
Extra options:
                             Mulliken analysis
                             Force calculation
Force type                   original

--------------------------------------------------------------------------------

***  Geometry step: 0

 iSCC Total electronic   Diff electronic      SCC error    
    1    0.00000000E+00    0.00000000E+00    0.13790414E+00
    2   -0.10434103E+03   -0.10434103E+03    0.13530559E+00
    3   -0.10434121E+03   -0.17752338E-03    0.43387420E-01
    4   -0.10434234E+03   -0.11325665E-02    0.42606027E-01
    5   -0.10434237E+03   -0.30931743E-04    0.95862660E-02
    6   -0.10434393E+03   -0.15572415E-02    0.89868429E-02
    7   -0.10434394E+03   -0.12837787E-04    0.38306040E-02
    8   -0.10434399E+03   -0.49409702E-04    0.31782931E-02
    9   -0.10434400E+03   -0.17364697E-05    0.80724219E-03
   10   -0.10434400E+03   -0.57320771E-05    0.68176437E-03
   11   -0.10434400E+03   -0.10558868E-06    0.30914015E-03
   12   -0.10434400E+03   -0.49279025E-06    0.27195834E-03
   13   -0.10434400E+03   -0.20109496E-08    0.50486647E-04
   14   -0.10434400E+03   -0.41250573E-07    0.46966085E-04
   15   -0.10434400E+03   -0.12923493E-08    0.26326746E-04
   16   -0.10434400E+03   -0.27690845E-08    0.19985470E-04
   17   -0.10434400E+03   -0.21869084E-09    0.88747693E-05
>> Charges saved for restart in charges.bin

Total Energy:                     -102.7044247999 H        -2794.7296 eV
Extrapolated to 0K:               -102.7044247999 H        -2794.7296 eV
Total Mermin free energy:         -102.7044247999 H        -2794.7296 eV
Force related energy:             -102.7044247999 H        -2794.7296 eV


--------------------------------------------------------------------------------
DFTB+ running times                          cpu [s]             wall clock [s]
--------------------------------------------------------------------------------
SCC                                    +     0.25  ( 88.1%)      0.30  ( 89.6%)
Post-SCC processing                    +     0.03  ( 10.0%)      0.03  (  8.7%)
--------------------------------------------------------------------------------
Missing                                +     0.01  (  1.9%)      0.01  (  1.8%)
Total                                  =     0.28  (100.0%)      0.34  (100.0%)
--------------------------------------------------------------------------------
