|===============================================================================
|
|  DFTB+ release 20.2.1
|
|  Copyright (C) 2006 - 2020  DFTB+ developers group
|
|===============================================================================
|
|  When publishing results obtained with DFTB+, please cite the following
|  reference:
|
|  * DFTB+, a software package for efficient approximate density functional
|    theory based atomistic simulations, J. Chem. Phys. 152, 124101 (2020).
|    [doi: 10.1063/1.5143190]
|
|  You should also cite additional publications crediting the parametrization
|  data you use. Please consult the documentation of the SK-files for the
|  references.
|
|===============================================================================

Reading input file 'dftb_in.hsd'
Parser version: 9

--------------------------------------------------------------------------------
***  Converting input from parser version  8 to parser version  9 ...
***  Done.

Reading SK-files:
Done.


Processed input in HSD format written to 'dftb_pin.hsd'

Starting initialization...
--------------------------------------------------------------------------------
OpenMP threads:              1
Chosen random seed:          1521663089
Mode:                        Static calculation
Self consistent charges:     Yes
SCC-tolerance:                 0.100000E-04
Max. scc iterations:                 850000
Shell resolved Hubbard:      No
Spin polarisation:           No
Nr. of up electrons:           121.000000
Nr. of down electrons:         121.000000
Periodic boundaries:         No
Electronic solver:           Relatively robust
Mixer:                       Anderson mixer
Mixing parameter:                  0.050000
Maximal SCC-cycles:                  850000
Nr. of chrg. vectors to mix:              4
Electronic temperature:        0.126673E-02 H      0.344694E-01 eV
Initial charges:             Set automatically (system chrg:   0.000E+00)
Included shells:             C:  s, p
                             H:  s
Extra options:
                             Mulliken analysis
                             Force calculation
Force type                   original

--------------------------------------------------------------------------------

***  Geometry step: 0

 iSCC Total electronic   Diff electronic      SCC error    
    1    0.00000000E+00    0.00000000E+00    0.84496525E-01
    2   -0.10437846E+03   -0.10437846E+03    0.83078400E-01
    3   -0.10437858E+03   -0.12112151E-03    0.32343961E-01
    4   -0.10437928E+03   -0.69273524E-03    0.31413983E-01
    5   -0.10437929E+03   -0.11813137E-04    0.78678510E-02
    6   -0.10438040E+03   -0.11104969E-02    0.69309049E-02
    7   -0.10438040E+03   -0.43713008E-05    0.25913753E-02
    8   -0.10438043E+03   -0.25684831E-04    0.21789270E-02
    9   -0.10438043E+03   -0.15278069E-05    0.78855154E-03
   10   -0.10438044E+03   -0.65841960E-05    0.66261906E-03
   11   -0.10438044E+03    0.14932951E-07    0.23546862E-03
   12   -0.10438044E+03   -0.33896397E-06    0.21253532E-03
   13   -0.10438044E+03   -0.78550926E-08    0.71796754E-04
   14   -0.10438044E+03   -0.22678634E-07    0.48658429E-04
   15   -0.10438044E+03   -0.73360695E-09    0.28058538E-04
   16   -0.10438044E+03   -0.30963747E-08    0.19541343E-04
   17   -0.10438044E+03   -0.72617468E-10    0.53774559E-05
>> Charges saved for restart in charges.bin

Total Energy:                     -102.7298930439 H        -2795.4226 eV
Extrapolated to 0K:               -102.7298930439 H        -2795.4226 eV
Total Mermin free energy:         -102.7298930439 H        -2795.4226 eV
Force related energy:             -102.7298930439 H        -2795.4226 eV


--------------------------------------------------------------------------------
DFTB+ running times                          cpu [s]             wall clock [s]
--------------------------------------------------------------------------------
SCC                                    +     0.25  ( 89.0%)      0.28  ( 86.9%)
Post-SCC processing                    +     0.03  (  9.1%)      0.03  (  8.1%)
Post-geometry optimisation             +     0.00  (  0.0%)      0.01  (  3.1%)
--------------------------------------------------------------------------------
Missing                                +     0.01  (  1.9%)      0.01  (  1.9%)
Total                                  =     0.29  (100.0%)      0.32  (100.0%)
--------------------------------------------------------------------------------
