|===============================================================================
|
|  DFTB+ release 20.2.1
|
|  Copyright (C) 2006 - 2020  DFTB+ developers group
|
|===============================================================================
|
|  When publishing results obtained with DFTB+, please cite the following
|  reference:
|
|  * DFTB+, a software package for efficient approximate density functional
|    theory based atomistic simulations, J. Chem. Phys. 152, 124101 (2020).
|    [doi: 10.1063/1.5143190]
|
|  You should also cite additional publications crediting the parametrization
|  data you use. Please consult the documentation of the SK-files for the
|  references.
|
|===============================================================================

Reading input file 'dftb_in.hsd'
Parser version: 9

--------------------------------------------------------------------------------
***  Converting input from parser version  8 to parser version  9 ...
***  Done.

Reading SK-files:
Done.


Processed input in HSD format written to 'dftb_pin.hsd'

Starting initialization...
--------------------------------------------------------------------------------
OpenMP threads:              1
Chosen random seed:          1521662865
Mode:                        Static calculation
Self consistent charges:     Yes
SCC-tolerance:                 0.100000E-04
Max. scc iterations:                 850000
Shell resolved Hubbard:      No
Spin polarisation:           No
Nr. of up electrons:           121.000000
Nr. of down electrons:         121.000000
Periodic boundaries:         No
Electronic solver:           Relatively robust
Mixer:                       Anderson mixer
Mixing parameter:                  0.050000
Maximal SCC-cycles:                  850000
Nr. of chrg. vectors to mix:              4
Electronic temperature:        0.126673E-02 H      0.344694E-01 eV
Initial charges:             Set automatically (system chrg:   0.000E+00)
Included shells:             C:  s, p
                             H:  s
Extra options:
                             Mulliken analysis
                             Force calculation
Force type                   original

--------------------------------------------------------------------------------

***  Geometry step: 0

 iSCC Total electronic   Diff electronic      SCC error    
    1    0.00000000E+00    0.00000000E+00    0.96965721E-01
    2   -0.10442661E+03   -0.10442661E+03    0.95387264E-01
    3   -0.10442671E+03   -0.10523834E-03    0.24753025E-01
    4   -0.10442735E+03   -0.63952663E-03    0.23581385E-01
    5   -0.10442738E+03   -0.27544223E-04    0.96144601E-02
    6   -0.10442845E+03   -0.10695205E-02    0.86772465E-02
    7   -0.10442846E+03   -0.63685432E-05    0.32983982E-02
    8   -0.10442849E+03   -0.35486660E-04    0.29460130E-02
    9   -0.10442849E+03   -0.19373571E-05    0.80449881E-03
   10   -0.10442850E+03   -0.54750722E-05    0.67998795E-03
   11   -0.10442850E+03   -0.48737263E-08    0.23770167E-03
   12   -0.10442850E+03   -0.37948408E-06    0.21115975E-03
   13   -0.10442850E+03   -0.48354423E-08    0.67348665E-04
   14   -0.10442850E+03   -0.18542323E-07    0.53742317E-04
   15   -0.10442850E+03   -0.61574212E-09    0.23005161E-04
   16   -0.10442850E+03   -0.25933957E-08    0.15449872E-04
   17   -0.10442850E+03   -0.11687007E-09    0.57328308E-05
>> Charges saved for restart in charges.bin

Total Energy:                     -102.7367272698 H        -2795.6086 eV
Extrapolated to 0K:               -102.7367272698 H        -2795.6086 eV
Total Mermin free energy:         -102.7367272698 H        -2795.6086 eV
Force related energy:             -102.7367272698 H        -2795.6086 eV


--------------------------------------------------------------------------------
DFTB+ running times                          cpu [s]             wall clock [s]
--------------------------------------------------------------------------------
SCC                                    +     0.25  ( 87.7%)      0.27  ( 88.1%)
Post-SCC processing                    +     0.03  ( 10.3%)      0.03  (  9.4%)
--------------------------------------------------------------------------------
Missing                                +     0.01  (  2.0%)      0.01  (  2.6%)
Total                                  =     0.28  (100.0%)      0.31  (100.0%)
--------------------------------------------------------------------------------
