|===============================================================================
|
|  DFTB+ release 20.2.1
|
|  Copyright (C) 2006 - 2020  DFTB+ developers group
|
|===============================================================================
|
|  When publishing results obtained with DFTB+, please cite the following
|  reference:
|
|  * DFTB+, a software package for efficient approximate density functional
|    theory based atomistic simulations, J. Chem. Phys. 152, 124101 (2020).
|    [doi: 10.1063/1.5143190]
|
|  You should also cite additional publications crediting the parametrization
|  data you use. Please consult the documentation of the SK-files for the
|  references.
|
|===============================================================================

Reading input file 'dftb_in.hsd'
Parser version: 9

--------------------------------------------------------------------------------
***  Converting input from parser version  8 to parser version  9 ...
***  Done.

Reading SK-files:
Done.


Processed input in HSD format written to 'dftb_pin.hsd'

Starting initialization...
--------------------------------------------------------------------------------
OpenMP threads:              1
Chosen random seed:          1521663124
Mode:                        Static calculation
Self consistent charges:     Yes
SCC-tolerance:                 0.100000E-04
Max. scc iterations:                 850000
Shell resolved Hubbard:      No
Spin polarisation:           No
Nr. of up electrons:           121.000000
Nr. of down electrons:         121.000000
Periodic boundaries:         No
Electronic solver:           Relatively robust
Mixer:                       Anderson mixer
Mixing parameter:                  0.050000
Maximal SCC-cycles:                  850000
Nr. of chrg. vectors to mix:              4
Electronic temperature:        0.126673E-02 H      0.344694E-01 eV
Initial charges:             Set automatically (system chrg:   0.000E+00)
Included shells:             C:  s, p
                             H:  s
Extra options:
                             Mulliken analysis
                             Force calculation
Force type                   original

--------------------------------------------------------------------------------

***  Geometry step: 0

 iSCC Total electronic   Diff electronic      SCC error    
    1    0.00000000E+00    0.00000000E+00    0.93321603E-01
    2   -0.10439360E+03   -0.10439360E+03    0.91731168E-01
    3   -0.10439368E+03   -0.82160992E-04    0.22343149E-01
    4   -0.10439409E+03   -0.40872034E-03    0.22050209E-01
    5   -0.10439413E+03   -0.33650915E-04    0.83072766E-02
    6   -0.10439500E+03   -0.87302337E-03    0.71695039E-02
    7   -0.10439502E+03   -0.16631336E-04    0.23472380E-02
    8   -0.10439508E+03   -0.68930639E-04    0.20097249E-02
    9   -0.10439508E+03   -0.74365866E-06    0.81039932E-03
   10   -0.10439509E+03   -0.25341159E-05    0.73826942E-03
   11   -0.10439509E+03   -0.64746516E-07    0.23259135E-03
   12   -0.10439509E+03   -0.29605320E-06    0.21107418E-03
   13   -0.10439509E+03   -0.39395331E-08    0.54953601E-04
   14   -0.10439509E+03   -0.14085515E-07    0.52567007E-04
   15   -0.10439509E+03   -0.83424823E-09    0.20372301E-04
   16   -0.10439509E+03   -0.29484966E-08    0.14618607E-04
   17   -0.10439509E+03   -0.16201795E-09    0.49442777E-05
>> Charges saved for restart in charges.bin

Total Energy:                     -102.7586548103 H        -2796.2053 eV
Extrapolated to 0K:               -102.7586548104 H        -2796.2053 eV
Total Mermin free energy:         -102.7586548104 H        -2796.2053 eV
Force related energy:             -102.7586548104 H        -2796.2053 eV


--------------------------------------------------------------------------------
DFTB+ running times                          cpu [s]             wall clock [s]
--------------------------------------------------------------------------------
SCC                                    +     0.27  ( 85.0%)      0.54  ( 90.8%)
Post-SCC processing                    +     0.04  ( 13.2%)      0.04  (  7.1%)
--------------------------------------------------------------------------------
Missing                                +     0.01  (  1.7%)      0.01  (  2.2%)
Total                                  =     0.32  (100.0%)      0.60  (100.0%)
--------------------------------------------------------------------------------
