|===============================================================================
|
|  DFTB+ release 20.2.1
|
|  Copyright (C) 2006 - 2020  DFTB+ developers group
|
|===============================================================================
|
|  When publishing results obtained with DFTB+, please cite the following
|  reference:
|
|  * DFTB+, a software package for efficient approximate density functional
|    theory based atomistic simulations, J. Chem. Phys. 152, 124101 (2020).
|    [doi: 10.1063/1.5143190]
|
|  You should also cite additional publications crediting the parametrization
|  data you use. Please consult the documentation of the SK-files for the
|  references.
|
|===============================================================================

Reading input file 'dftb_in.hsd'
Parser version: 9

--------------------------------------------------------------------------------
***  Converting input from parser version  8 to parser version  9 ...
***  Done.

Reading SK-files:
Done.


Processed input in HSD format written to 'dftb_pin.hsd'

Starting initialization...
--------------------------------------------------------------------------------
OpenMP threads:              1
Chosen random seed:          1521663134
Mode:                        Static calculation
Self consistent charges:     Yes
SCC-tolerance:                 0.100000E-04
Max. scc iterations:                 850000
Shell resolved Hubbard:      No
Spin polarisation:           No
Nr. of up electrons:           121.000000
Nr. of down electrons:         121.000000
Periodic boundaries:         No
Electronic solver:           Relatively robust
Mixer:                       Anderson mixer
Mixing parameter:                  0.050000
Maximal SCC-cycles:                  850000
Nr. of chrg. vectors to mix:              4
Electronic temperature:        0.126673E-02 H      0.344694E-01 eV
Initial charges:             Set automatically (system chrg:   0.000E+00)
Included shells:             C:  s, p
                             H:  s
Extra options:
                             Mulliken analysis
                             Force calculation
Force type                   original

--------------------------------------------------------------------------------

***  Geometry step: 0

 iSCC Total electronic   Diff electronic      SCC error    
    1    0.00000000E+00    0.00000000E+00    0.91440205E-01
    2   -0.10429566E+03   -0.10429566E+03    0.90171215E-01
    3   -0.10429577E+03   -0.10497116E-03    0.29626301E-01
    4   -0.10429648E+03   -0.70853016E-03    0.28610989E-01
    5   -0.10429650E+03   -0.18143128E-04    0.10652511E-01
    6   -0.10429745E+03   -0.95175534E-03    0.93638154E-02
    7   -0.10429746E+03   -0.79070661E-05    0.25498589E-02
    8   -0.10429749E+03   -0.34771766E-04    0.23582466E-02
    9   -0.10429749E+03   -0.15860336E-05    0.92051179E-03
   10   -0.10429750E+03   -0.37138153E-05    0.73578524E-03
   11   -0.10429750E+03   -0.80873207E-07    0.22780463E-03
   12   -0.10429750E+03   -0.56987592E-06    0.19965961E-03
   13   -0.10429750E+03   -0.34520014E-08    0.64457081E-04
   14   -0.10429750E+03   -0.17592001E-07    0.60510968E-04
   15   -0.10429750E+03   -0.75247897E-09    0.20747476E-04
   16   -0.10429750E+03   -0.29993146E-08    0.14856479E-04
   17   -0.10429750E+03   -0.17207924E-09    0.52592697E-05
>> Charges saved for restart in charges.bin

Total Energy:                     -102.7265323617 H        -2795.3312 eV
Extrapolated to 0K:               -102.7265323618 H        -2795.3312 eV
Total Mermin free energy:         -102.7265323619 H        -2795.3312 eV
Force related energy:             -102.7265323619 H        -2795.3312 eV


--------------------------------------------------------------------------------
DFTB+ running times                          cpu [s]             wall clock [s]
--------------------------------------------------------------------------------
SCC                                    +     0.30  ( 90.0%)      0.61  ( 94.9%)
Post-SCC processing                    +     0.03  (  8.4%)      0.03  (  4.4%)
--------------------------------------------------------------------------------
Missing                                +     0.01  (  1.7%)      0.00  (  0.8%)
Total                                  =     0.33  (100.0%)      0.64  (100.0%)
--------------------------------------------------------------------------------
