|===============================================================================
|
|  DFTB+ release 20.2.1
|
|  Copyright (C) 2006 - 2020  DFTB+ developers group
|
|===============================================================================
|
|  When publishing results obtained with DFTB+, please cite the following
|  reference:
|
|  * DFTB+, a software package for efficient approximate density functional
|    theory based atomistic simulations, J. Chem. Phys. 152, 124101 (2020).
|    [doi: 10.1063/1.5143190]
|
|  You should also cite additional publications crediting the parametrization
|  data you use. Please consult the documentation of the SK-files for the
|  references.
|
|===============================================================================

Reading input file 'dftb_in.hsd'
Parser version: 9

--------------------------------------------------------------------------------
***  Converting input from parser version  8 to parser version  9 ...
***  Done.

Reading SK-files:
Done.


Processed input in HSD format written to 'dftb_pin.hsd'

Starting initialization...
--------------------------------------------------------------------------------
OpenMP threads:              1
Chosen random seed:          1521663099
Mode:                        Static calculation
Self consistent charges:     Yes
SCC-tolerance:                 0.100000E-04
Max. scc iterations:                 850000
Shell resolved Hubbard:      No
Spin polarisation:           No
Nr. of up electrons:           121.000000
Nr. of down electrons:         121.000000
Periodic boundaries:         No
Electronic solver:           Relatively robust
Mixer:                       Anderson mixer
Mixing parameter:                  0.050000
Maximal SCC-cycles:                  850000
Nr. of chrg. vectors to mix:              4
Electronic temperature:        0.126673E-02 H      0.344694E-01 eV
Initial charges:             Set automatically (system chrg:   0.000E+00)
Included shells:             C:  s, p
                             H:  s
Extra options:
                             Mulliken analysis
                             Force calculation
Force type                   original

--------------------------------------------------------------------------------

***  Geometry step: 0

 iSCC Total electronic   Diff electronic      SCC error    
    1    0.00000000E+00    0.00000000E+00    0.10406937E+00
    2   -0.10431995E+03   -0.10431995E+03    0.10242008E+00
    3   -0.10432005E+03   -0.10561628E-03    0.32884308E-01
    4   -0.10432086E+03   -0.81217381E-03    0.32197478E-01
    5   -0.10432090E+03   -0.39152439E-04    0.11142672E-01
    6   -0.10432179E+03   -0.88328176E-03    0.99772989E-02
    7   -0.10432181E+03   -0.22472747E-04    0.23133504E-02
    8   -0.10432189E+03   -0.80089551E-04    0.20496141E-02
    9   -0.10432189E+03   -0.15901662E-05    0.82456824E-03
   10   -0.10432190E+03   -0.43399766E-05    0.71950762E-03
   11   -0.10432190E+03   -0.96763017E-07    0.27073619E-03
   12   -0.10432190E+03   -0.42140870E-06    0.24798210E-03
   13   -0.10432190E+03   -0.53305484E-08    0.71610392E-04
   14   -0.10432190E+03   -0.22196318E-07    0.61107872E-04
   15   -0.10432190E+03   -0.10356871E-08    0.31110862E-04
   16   -0.10432190E+03   -0.30908751E-08    0.22845710E-04
   17   -0.10432190E+03   -0.17895729E-09    0.68119565E-05
>> Charges saved for restart in charges.bin

Total Energy:                     -102.7376750845 H        -2795.6344 eV
Extrapolated to 0K:               -102.7376750847 H        -2795.6344 eV
Total Mermin free energy:         -102.7376750850 H        -2795.6344 eV
Force related energy:             -102.7376750850 H        -2795.6344 eV


--------------------------------------------------------------------------------
DFTB+ running times                          cpu [s]             wall clock [s]
--------------------------------------------------------------------------------
SCC                                    +     0.26  ( 84.6%)      0.49  ( 89.9%)
Post-SCC processing                    +     0.04  ( 13.7%)      0.04  (  7.7%)
--------------------------------------------------------------------------------
Missing                                +     0.01  (  1.8%)      0.01  (  2.4%)
Total                                  =     0.30  (100.0%)      0.54  (100.0%)
--------------------------------------------------------------------------------
