|===============================================================================
|
|  DFTB+ release 20.2.1
|
|  Copyright (C) 2006 - 2020  DFTB+ developers group
|
|===============================================================================
|
|  When publishing results obtained with DFTB+, please cite the following
|  reference:
|
|  * DFTB+, a software package for efficient approximate density functional
|    theory based atomistic simulations, J. Chem. Phys. 152, 124101 (2020).
|    [doi: 10.1063/1.5143190]
|
|  You should also cite additional publications crediting the parametrization
|  data you use. Please consult the documentation of the SK-files for the
|  references.
|
|===============================================================================

Reading input file 'dftb_in.hsd'
Parser version: 9

--------------------------------------------------------------------------------
***  Converting input from parser version  8 to parser version  9 ...
***  Done.

Reading SK-files:
Done.


Processed input in HSD format written to 'dftb_pin.hsd'

Starting initialization...
--------------------------------------------------------------------------------
OpenMP threads:              1
Chosen random seed:          1521663174
Mode:                        Static calculation
Self consistent charges:     Yes
SCC-tolerance:                 0.100000E-04
Max. scc iterations:                 850000
Shell resolved Hubbard:      No
Spin polarisation:           No
Nr. of up electrons:           121.000000
Nr. of down electrons:         121.000000
Periodic boundaries:         No
Electronic solver:           Relatively robust
Mixer:                       Anderson mixer
Mixing parameter:                  0.050000
Maximal SCC-cycles:                  850000
Nr. of chrg. vectors to mix:              4
Electronic temperature:        0.126673E-02 H      0.344694E-01 eV
Initial charges:             Set automatically (system chrg:   0.000E+00)
Included shells:             C:  s, p
                             H:  s
Extra options:
                             Mulliken analysis
                             Force calculation
Force type                   original

--------------------------------------------------------------------------------

***  Geometry step: 0

 iSCC Total electronic   Diff electronic      SCC error    
    1    0.00000000E+00    0.00000000E+00    0.89286319E-01
    2   -0.10433034E+03   -0.10433034E+03    0.87678606E-01
    3   -0.10433043E+03   -0.91302767E-04    0.28060402E-01
    4   -0.10433128E+03   -0.84586791E-03    0.27454202E-01
    5   -0.10433129E+03   -0.13087926E-04    0.84095931E-02
    6   -0.10433197E+03   -0.67911275E-03    0.75614501E-02
    7   -0.10433197E+03   -0.56122746E-05    0.24249600E-02
    8   -0.10433201E+03   -0.35041202E-04    0.20916063E-02
    9   -0.10433201E+03   -0.98946060E-06    0.56445792E-03
   10   -0.10433201E+03   -0.31777817E-05    0.53129995E-03
   11   -0.10433201E+03   -0.51644975E-07    0.26682868E-03
   12   -0.10433201E+03   -0.26330319E-06    0.22497675E-03
   13   -0.10433201E+03   -0.50944493E-09    0.56244453E-04
   14   -0.10433201E+03   -0.26295453E-07    0.49260223E-04
   15   -0.10433201E+03   -0.66776806E-09    0.19285284E-04
   16   -0.10433201E+03   -0.12950210E-08    0.13055275E-04
   17   -0.10433201E+03   -0.21780977E-09    0.46143111E-05
>> Charges saved for restart in charges.bin

Total Energy:                     -102.7751228981 H        -2796.6534 eV
Extrapolated to 0K:               -102.7751228981 H        -2796.6534 eV
Total Mermin free energy:         -102.7751228981 H        -2796.6534 eV
Force related energy:             -102.7751228981 H        -2796.6534 eV


--------------------------------------------------------------------------------
DFTB+ running times                          cpu [s]             wall clock [s]
--------------------------------------------------------------------------------
SCC                                    +     0.28  ( 89.7%)      0.58  ( 94.7%)
Post-SCC processing                    +     0.03  (  8.6%)      0.03  (  4.4%)
--------------------------------------------------------------------------------
Missing                                +     0.01  (  1.8%)      0.01  (  1.0%)
Total                                  =     0.31  (100.0%)      0.62  (100.0%)
--------------------------------------------------------------------------------
