|===============================================================================
|
|  DFTB+ release 20.2.1
|
|  Copyright (C) 2006 - 2020  DFTB+ developers group
|
|===============================================================================
|
|  When publishing results obtained with DFTB+, please cite the following
|  reference:
|
|  * DFTB+, a software package for efficient approximate density functional
|    theory based atomistic simulations, J. Chem. Phys. 152, 124101 (2020).
|    [doi: 10.1063/1.5143190]
|
|  You should also cite additional publications crediting the parametrization
|  data you use. Please consult the documentation of the SK-files for the
|  references.
|
|===============================================================================

Reading input file 'dftb_in.hsd'
Parser version: 9

--------------------------------------------------------------------------------
***  Converting input from parser version  8 to parser version  9 ...
***  Done.

Reading SK-files:
Done.


Processed input in HSD format written to 'dftb_pin.hsd'

Starting initialization...
--------------------------------------------------------------------------------
OpenMP threads:              1
Chosen random seed:          1521663115
Mode:                        Static calculation
Self consistent charges:     Yes
SCC-tolerance:                 0.100000E-04
Max. scc iterations:                 850000
Shell resolved Hubbard:      No
Spin polarisation:           No
Nr. of up electrons:           121.000000
Nr. of down electrons:         121.000000
Periodic boundaries:         No
Electronic solver:           Relatively robust
Mixer:                       Anderson mixer
Mixing parameter:                  0.050000
Maximal SCC-cycles:                  850000
Nr. of chrg. vectors to mix:              4
Electronic temperature:        0.126673E-02 H      0.344694E-01 eV
Initial charges:             Set automatically (system chrg:   0.000E+00)
Included shells:             C:  s, p
                             H:  s
Extra options:
                             Mulliken analysis
                             Force calculation
Force type                   original

--------------------------------------------------------------------------------

***  Geometry step: 0

 iSCC Total electronic   Diff electronic      SCC error    
    1    0.00000000E+00    0.00000000E+00    0.62371502E-01
    2   -0.10425500E+03   -0.10425500E+03    0.61511402E-01
    3   -0.10425509E+03   -0.86483550E-04    0.24899057E-01
    4   -0.10425582E+03   -0.73617420E-03    0.24217182E-01
    5   -0.10425584E+03   -0.16453764E-04    0.81224774E-02
    6   -0.10425646E+03   -0.62190674E-03    0.72049534E-02
    7   -0.10425647E+03   -0.13548305E-04    0.26305466E-02
    8   -0.10425651E+03   -0.38962897E-04    0.21673926E-02
    9   -0.10425651E+03   -0.64619567E-06    0.66727797E-03
   10   -0.10425652E+03   -0.32289417E-05    0.60651816E-03
   11   -0.10425652E+03   -0.64332838E-07    0.24375826E-03
   12   -0.10425652E+03   -0.25075865E-06    0.21759766E-03
   13   -0.10425652E+03   -0.18512338E-08    0.42147942E-04
   14   -0.10425652E+03   -0.20705528E-07    0.37614143E-04
   15   -0.10425652E+03   -0.64451910E-09    0.21532711E-04
   16   -0.10425652E+03   -0.11915517E-08    0.14402759E-04
   17   -0.10425652E+03   -0.13692159E-09    0.61534292E-05
>> Charges saved for restart in charges.bin

Total Energy:                     -102.7771370705 H        -2796.7082 eV
Extrapolated to 0K:               -102.7771370706 H        -2796.7082 eV
Total Mermin free energy:         -102.7771370706 H        -2796.7082 eV
Force related energy:             -102.7771370706 H        -2796.7082 eV


--------------------------------------------------------------------------------
DFTB+ running times                          cpu [s]             wall clock [s]
--------------------------------------------------------------------------------
SCC                                    +     0.26  ( 86.8%)      0.57  ( 92.7%)
Post-SCC processing                    +     0.03  ( 11.4%)      0.03  (  5.5%)
--------------------------------------------------------------------------------
Missing                                +     0.01  (  1.8%)      0.01  (  1.8%)
Total                                  =     0.30  (100.0%)      0.62  (100.0%)
--------------------------------------------------------------------------------
