 Fermi distribution function

Calculation with static geometry


********************************************************************************
 iSCC Total electronic   Diff electronic      SCC error    
   15   -0.55410478E+01   -0.28068214E-10    0.95196471E-05
********************************************************************************

 Total charge:     0.00000000

 Atomic gross charges (e)
 Atom           Charge
    1      -0.20029344
    2      -0.22077170
    3       0.05050230
    4       0.08015019
    5       0.08068310
    6       0.07652761
    7       0.03016194
    8       0.10304000

Nr. of electrons (up):     14.00000000
Atom populations (up)
 Atom       Population
    1       4.20029344
    2       4.22077170
    3       0.94949770
    4       0.91984981
    5       0.91931690
    6       0.92347239
    7       0.96983806
    8       0.89696000

l-shell populations (up)
 Atom Sh.   l       Population
    1   1   0       1.24940833
    1   2   1       2.95088511
    2   1   0       1.27416520
    2   2   1       2.94660649
    3   1   0       0.94949770
    4   1   0       0.91984981
    5   1   0       0.91931690
    6   1   0       0.92347239
    7   1   0       0.96983806
    8   1   0       0.89696000

Orbital populations (up)
 Atom Sh.   l   m       Population  Label
    1   1   0   0       1.24940833  s
    1   2   1  -1       1.02503200  p_y
    1   2   1   0       0.94283561  p_z
    1   2   1   1       0.98301750  p_x
    2   1   0   0       1.27416520  s
    2   2   1  -1       1.06628258  p_y
    2   2   1   0       0.93192520  p_z
    2   2   1   1       0.94839872  p_x
    3   1   0   0       0.94949770  s
    4   1   0   0       0.91984981  s
    5   1   0   0       0.91931690  s
    6   1   0   0       0.92347239  s
    7   1   0   0       0.96983806  s
    8   1   0   0       0.89696000  s

Fermi level:                        -0.0587933586 H           -1.5998 eV
Band energy:                        -5.3326267349 H         -145.1082 eV
TS:                                  0.0000000000 H            0.0000 eV
Band free energy (E-TS):            -5.3326267349 H         -145.1082 eV
Extrapolated E(0K):                 -5.3326267349 H         -145.1082 eV
Input / Output electrons (q):     14.0000000000     14.0000000000

Energy H0:                          -5.5436562173 H         -150.8506 eV
Energy SCC:                          0.0026083978 H            0.0710 eV
Total Electronic energy:            -5.5410478195 H         -150.7796 eV
Repulsive energy:                   -0.0905954122 H           -2.4652 eV
Total energy:                       -5.6316432316 H         -153.2448 eV
Extrapolated to 0:                  -5.6316432316 H         -153.2448 eV
Total Mermin free energy:           -5.6316432316 H         -153.2448 eV
Force related energy:               -5.6316432316 H         -153.2448 eV

SCC converged

Total Forces
    1     -0.089694333950     -0.005817150447      0.002868853827
    2     -0.008604681353     -0.057759347821     -0.071732916795
    3      0.025440481965     -0.027565099269      0.014058065459
    4      0.031084364185      0.053111914943      0.013857012465
    5     -0.008547548779     -0.015590816321     -0.002853148589
    6     -0.012305005794      0.036879990857     -0.017065384115
    7      0.016563383871     -0.006028594314      0.035373209723
    8      0.046063339855      0.022769102372      0.025494308025

Maximal derivative component:        0.896943E-01 au

Dipole moment:   -0.01471266    0.01262957    0.01200318 au
Dipole moment:   -0.03739585    0.03210116    0.03050903 Debye


